ATOM      1  C   UNL     2     101.470 120.307  63.850  1.00  0.00     0.177 C 
ATOM      2  O   UNL     2     102.153 120.502  62.591  1.00  0.00    -0.351 OA
ATOM      3  C   UNL     2     101.351 121.735  64.458  1.00  0.00     0.178 C 
ATOM      4  C   UNL     2     102.747 122.312  64.065  1.00  0.00     0.190 C 
ATOM      5  C   UNL     2     102.832 121.782  62.599  1.00  0.00     0.230 C 
ATOM      6  C   UNL     2     100.149 119.550  63.579  1.00  0.00     0.191 C 
ATOM      7  O   UNL     2     100.446 118.268  63.012  1.00  0.00    -0.394 OA
ATOM      8  H   UNL     2     100.924 118.385  62.188  1.00  0.00     0.210 HD
ATOM      9  O   UNL     2     101.122 121.729  65.867  1.00  0.00    -0.387 OA
ATOM     10  H   UNL     2     101.058 122.632  66.185  1.00  0.00     0.211 HD
ATOM     11  O   UNL     2     103.813 121.811  64.883  1.00  0.00    -0.386 OA
ATOM     12  H   UNL     2     103.743 122.184  65.765  1.00  0.00     0.211 HD
ATOM     13  N   UNL     2     102.209 122.647  61.608  1.00  0.00    -0.171 NA
ATOM     14  C   UNL     2     102.818 123.552  60.797  1.00  0.00     0.328 C 
ATOM     15  C   UNL     2     100.849 122.743  61.272  1.00  0.00     0.363 C 
ATOM     16  N   UNL     2     104.113 123.841  60.665  1.00  0.00    -0.313 N 
ATOM     17  C   UNL     2     101.847 124.151  60.062  1.00  0.00     0.291 C 
ATOM     18  N   UNL     2     100.570 123.663  60.339  1.00  0.00    -0.322 N 
ATOM     19  C   UNL     2     104.405 124.756  59.725  1.00  0.00     0.354 C 
ATOM     20  C   UNL     2     102.272 125.118  59.160  1.00  0.00     0.190 C 
ATOM     21  N   UNL     2     103.533 125.437  58.961  1.00  0.00    -0.249 NA
ATOM     22  H   UNL     2     104.479 124.148  61.555  1.00  0.00     0.349 HD
ATOM     23  H   UNL     2     104.627 122.992  60.476  1.00  0.00     0.349 HD
ATOM     24  H   UNL     2     100.018 124.399  60.755  1.00  0.00     0.348 HD
ATOM     25  H   UNL     2     100.207 123.201  59.517  1.00  0.00     0.348 HD
ATOM     26  H   UNL     2     103.620 126.425  59.150  1.00  0.00     0.130 HD
ATOM     27  N   UNL     2     101.446 125.770  58.350  1.00  0.00    -0.311 NA
ATOM     28  H   UNL     2     101.541 126.764  58.500  1.00  0.00     0.120 HD
ATOM     29  H   UNL     2     100.495 125.491  58.542  1.00  0.00     0.120 HD
