REMARK SMILES N[C@@H]1N=CNc2c1ncn2[C@@H]1O[C@H](CO)[C@@H](O)[C@H]1O
REMARK SMILES IDX 13 1 12 2 16 3 18 4 11 5 14 6 15 7 17 9 19 11 10 13 6 14
REMARK SMILES IDX 9 15 5 16 7 17 8 18 4 19 2 20 3 21 1 23
REMARK H PARENT 15 8 17 10 19 12 5 22 1 24 1 25
ROOT
ATOM      1  C   UNL     1     101.637 120.821  63.432  1.00  0.00     0.178 C 
ATOM      2  O   UNL     1     102.719 121.089  62.515  1.00  0.00    -0.347 OA
ATOM      3  C   UNL     1     101.376 122.189  64.118  1.00  0.00     0.179 C 
ATOM      4  C   UNL     1     102.845 122.623  64.371  1.00  0.00     0.195 C 
ATOM      5  C   UNL     1     103.490 122.221  62.995  1.00  0.00     0.253 C 
ENDROOT
BRANCH   1   6
ATOM      6  C   UNL     1     100.441 120.249  62.647  1.00  0.00     0.191 C 
BRANCH   6   7
ATOM      7  O   UNL     1     100.868 119.116  61.881  1.00  0.00    -0.394 OA
ATOM      8  H   UNL     1     101.554 119.385  61.266  1.00  0.00     0.210 HD
ENDBRANCH   6   7
ENDBRANCH   1   6
BRANCH   3   9
ATOM      9  O   UNL     1     100.587 122.074  65.312  1.00  0.00    -0.387 OA
ATOM     10  H   UNL     1     100.688 122.869  65.841  1.00  0.00     0.211 HD
ENDBRANCH   3   9
BRANCH   4  11
ATOM     11  O   UNL     1     103.412 121.906  65.477  1.00  0.00    -0.386 OA
ATOM     12  H   UNL     1     103.189 122.353  66.297  1.00  0.00     0.211 HD
ENDBRANCH   4  11
BRANCH   5  13
ATOM     13  N   UNL     1     103.477 123.241  61.943  1.00  0.00    -0.287 N 
ATOM     14  C   UNL     1     104.511 124.012  61.479  1.00  0.00     0.140 A 
ATOM     15  C   UNL     1     102.462 123.444  60.994  1.00  0.00     0.203 A 
ATOM     16  N   UNL     1     105.737 124.198  61.980  1.00  0.00    -0.331 N 
ATOM     17  C   UNL     1     104.101 124.595  60.322  1.00  0.00     0.122 A 
ATOM     18  N   UNL     1     102.791 124.270  59.991  1.00  0.00    -0.236 NA
ATOM     19  C   UNL     1     106.560 124.975  61.240  1.00  0.00     0.194 C 
ATOM     20  C   UNL     1     105.031 125.389  59.652  1.00  0.00     0.224 C 
ATOM     21  N   UNL     1     106.253 125.589  60.091  1.00  0.00    -0.250 NA
ATOM     22  H   UNL     1     106.022 123.795  62.832  1.00  0.00     0.169 HD
BRANCH  20  23
ATOM     23  N   UNL     1     104.822 125.979  58.476  1.00  0.00    -0.304 NA
ATOM     24  H   UNL     1     103.921 125.903  58.026  1.00  0.00     0.121 HD
ATOM     25  H   UNL     1     105.565 126.502  58.034  1.00  0.00     0.121 HD
ENDBRANCH  20  23
ENDBRANCH   5  13
TORSDOF 6
