ATOM      1  C   UNL     1     156.310 133.749  61.576  1.00  0.00     0.177 C 
ATOM      2  O   UNL     1     154.994 133.830  60.974  1.00  0.00    -0.352 OA
ATOM      3  C   UNL     1     156.464 132.276  62.056  1.00  0.00     0.178 C 
ATOM      4  C   UNL     1     155.002 131.991  62.498  1.00  0.00     0.190 C 
ATOM      5  C   UNL     1     154.234 132.647  61.305  1.00  0.00     0.226 C 
ATOM      6  C   UNL     1     157.360 134.222  60.557  1.00  0.00     0.191 C 
ATOM      7  O   UNL     1     156.943 135.487  60.042  1.00  0.00    -0.394 OA
ATOM      8  H   UNL     1     156.088 135.393  59.615  1.00  0.00     0.210 HD
ATOM      9  O   UNL     1     157.418 132.123  63.119  1.00  0.00    -0.387 OA
ATOM     10  H   UNL     1     157.470 131.198  63.372  1.00  0.00     0.211 HD
ATOM     11  O   UNL     1     154.694 132.619  63.753  1.00  0.00    -0.386 OA
ATOM     12  H   UNL     1     154.538 131.945  64.419  1.00  0.00     0.211 HD
ATOM     13  N   UNL     1     154.079 131.837  60.096  1.00  0.00    -0.206 NA
ATOM     14  C   UNL     1     153.170 130.844  59.858  1.00  0.00     0.199 C 
ATOM     15  C   UNL     1     154.658 132.074  58.832  1.00  0.00     0.359 C 
ATOM     16  C   UNL     1     153.229 130.551  58.534  1.00  0.00     0.291 C 
ATOM     17  N   UNL     1     152.313 130.240  60.689  1.00  0.00    -0.283 NA
ATOM     18  N   UNL     1     154.175 131.301  57.847  1.00  0.00    -0.323 N 
ATOM     19  C   UNL     1     152.351 129.581  58.070  1.00  0.00     0.317 C 
ATOM     20  C   UNL     1     151.507 129.320  60.119  1.00  0.00     0.172 C 
ATOM     21  N   UNL     1     151.493 128.952  58.836  1.00  0.00    -0.250 NA
ATOM     22  H   UNL     1     151.751 130.971  61.101  1.00  0.00     0.125 HD
ATOM     23  H   UNL     1     153.706 131.884  57.168  1.00  0.00     0.348 HD
ATOM     24  H   UNL     1     154.907 130.689  57.517  1.00  0.00     0.348 HD
ATOM     25  H   UNL     1     151.709 127.968  58.765  1.00  0.00     0.130 HD
ATOM     26  N   UNL     1     152.279 129.219  56.794  1.00  0.00    -0.338 N 
ATOM     27  H   UNL     1     152.961 129.736  56.258  1.00  0.00     0.346 HD
ATOM     28  H   UNL     1     152.467 128.230  56.713  1.00  0.00     0.346 HD
ATOM     29  H   UNL     1     151.354 129.415  56.440  1.00  0.00     0.346 HD
