REMARK SMILES [NH3+][C@@H]1NCN[C@H]2[C@@H]1[NH2+]CN2[C@@H]1O[C@H](CO)[C@@H](O)[C@H]1O
REMARK SMILES IDX 13 1 12 2 16 3 18 4 11 5 14 6 15 7 17 9 19 11 10 13 6 14
REMARK SMILES IDX 9 15 7 16 5 17 8 18 2 19 4 20 3 21 1 26
REMARK H PARENT 15 8 17 10 19 12 5 22 8 23 8 24 3 25 1 27 1 28 1 29
ROOT
ATOM      1  C   UNL     1     101.384 120.313  63.625  1.00  0.00     0.177 C 
ATOM      2  O   UNL     1     102.221 120.461  62.454  1.00  0.00    -0.352 OA
ATOM      3  C   UNL     1     101.121 121.779  64.073  1.00  0.00     0.178 C 
ATOM      4  C   UNL     1     102.560 122.347  63.916  1.00  0.00     0.190 C 
ATOM      5  C   UNL     1     102.927 121.732  62.532  1.00  0.00     0.226 C 
ENDROOT
BRANCH   1   6
ATOM      6  C   UNL     1     100.135 119.488  63.243  1.00  0.00     0.191 C 
BRANCH   6   7
ATOM      7  O   UNL     1     100.551 118.219  62.721  1.00  0.00    -0.394 OA
ATOM      8  H   UNL     1     101.097 118.356  61.943  1.00  0.00     0.210 HD
ENDBRANCH   6   7
ENDBRANCH   1   6
BRANCH   3   9
ATOM      9  O   UNL     1     100.608 121.900  65.402  1.00  0.00    -0.387 OA
ATOM     10  H   UNL     1     100.976 122.683  65.817  1.00  0.00     0.211 HD
ENDBRANCH   3   9
BRANCH   4  11
ATOM     11  O   UNL     1     103.446 121.907  64.951  1.00  0.00    -0.386 OA
ATOM     12  H   UNL     1     103.675 122.650  65.514  1.00  0.00     0.211 HD
ENDBRANCH   4  11
BRANCH   5  13
ATOM     13  N   UNL     1     102.550 122.550  61.383  1.00  0.00    -0.206 NA
ATOM     14  C   UNL     1     103.293 123.510  60.757  1.00  0.00     0.199 C 
ATOM     15  C   UNL     1     101.396 122.437  60.591  1.00  0.00     0.359 C 
ATOM     16  C   UNL     1     102.616 123.872  59.636  1.00  0.00     0.291 C 
ATOM     17  N   UNL     1     104.488 124.013  61.077  1.00  0.00    -0.283 NA
ATOM     18  N   UNL     1     101.398 123.211  59.496  1.00  0.00    -0.323 N 
ATOM     19  C   UNL     1     103.242 124.793  58.804  1.00  0.00     0.317 C 
ATOM     20  C   UNL     1     105.002 124.894  60.195  1.00  0.00     0.172 C 
ATOM     21  N   UNL     1     104.429 125.299  59.051  1.00  0.00    -0.250 NA
ATOM     22  H   UNL     1     105.113 123.225  61.169  1.00  0.00     0.125 HD
ATOM     23  H   UNL     1     100.647 123.883  59.564  1.00  0.00     0.348 HD
ATOM     24  H   UNL     1     101.433 122.623  58.675  1.00  0.00     0.348 HD
ATOM     25  H   UNL     1     104.313 126.302  59.069  1.00  0.00     0.130 HD
BRANCH  19  26
ATOM     26  N   UNL     1     102.730 125.177  57.632  1.00  0.00    -0.338 N 
ATOM     27  H   UNL     1     101.822 124.754  57.506  1.00  0.00     0.346 HD
ATOM     28  H   UNL     1     102.637 126.183  57.618  1.00  0.00     0.346 HD
ATOM     29  H   UNL     1     103.343 124.885  56.884  1.00  0.00     0.346 HD
ENDBRANCH  19  26
ENDBRANCH   5  13
TORSDOF 6
