REMARK SMILES N[C@H]1NC[NH2+][C@H]2[C@H]1[NH2+]CN2[C@@H]1O[C@H](CO)[C@@H](O)[C@H]1O
REMARK SMILES IDX 13 1 12 2 16 3 18 4 11 5 14 6 15 7 17 9 19 11 10 13 6 14
REMARK SMILES IDX 9 15 5 16 7 17 8 18 4 19 2 20 3 21 1 27
REMARK H PARENT 15 8 17 10 19 12 5 22 5 23 8 24 8 25 3 26 1 28 1 29
ROOT
ATOM      1  C   UNL     1     154.290 134.746  62.065  1.00  0.00     0.177 C 
ATOM      2  O   UNL     1     154.301 134.119  60.772  1.00  0.00    -0.351 OA
ATOM      3  C   UNL     1     154.749 133.620  63.007  1.00  0.00     0.178 C 
ATOM      4  C   UNL     1     153.926 132.419  62.449  1.00  0.00     0.190 C 
ATOM      5  C   UNL     1     153.820 132.767  60.920  1.00  0.00     0.230 C 
ENDROOT
BRANCH   1   6
ATOM      6  C   UNL     1     155.214 135.974  62.017  1.00  0.00     0.191 C 
BRANCH   6   7
ATOM      7  O   UNL     1     156.387 135.599  61.302  1.00  0.00    -0.394 OA
ATOM      8  H   UNL     1     156.147 135.325  60.414  1.00  0.00     0.210 HD
ENDBRANCH   6   7
ENDBRANCH   1   6
BRANCH   3   9
ATOM      9  O   UNL     1     154.487 133.910  64.384  1.00  0.00    -0.387 OA
ATOM     10  H   UNL     1     154.788 133.179  64.928  1.00  0.00     0.211 HD
ENDBRANCH   3   9
BRANCH   4  11
ATOM     11  O   UNL     1     152.640 132.297  63.073  1.00  0.00    -0.386 OA
ATOM     12  H   UNL     1     152.753 132.164  64.017  1.00  0.00     0.211 HD
ENDBRANCH   4  11
BRANCH   5  13
ATOM     13  N   UNL     1     154.564 131.915  60.002  1.00  0.00    -0.171 NA
ATOM     14  C   UNL     1     154.062 131.152  58.994  1.00  0.00     0.328 C 
ATOM     15  C   UNL     1     155.946 131.669  59.960  1.00  0.00     0.363 C 
ATOM     16  N   UNL     1     152.806 131.040  58.578  1.00  0.00    -0.313 N 
ATOM     17  C   UNL     1     155.096 130.490  58.415  1.00  0.00     0.291 C 
ATOM     18  N   UNL     1     156.326 130.823  58.988  1.00  0.00    -0.322 N 
ATOM     19  C   UNL     1     152.601 130.188  57.561  1.00  0.00     0.354 C 
ATOM     20  C   UNL     1     154.764 129.591  57.394  1.00  0.00     0.190 C 
ATOM     21  N   UNL     1     153.527 129.425  56.958  1.00  0.00    -0.249 NA
ATOM     22  H   UNL     1     152.219 130.777  59.357  1.00  0.00     0.349 HD
ATOM     23  H   UNL     1     152.456 131.953  58.324  1.00  0.00     0.349 HD
ATOM     24  H   UNL     1     156.731 129.998  59.407  1.00  0.00     0.348 HD
ATOM     25  H   UNL     1     156.882 131.325  58.311  1.00  0.00     0.348 HD
ATOM     26  H   UNL     1     153.302 128.450  57.096  1.00  0.00     0.130 HD
BRANCH  20  27
ATOM     27  N   UNL     1     155.636 128.798  56.761  1.00  0.00    -0.311 NA
ATOM     28  H   UNL     1     155.380 127.832  56.907  1.00  0.00     0.120 HD
ATOM     29  H   UNL     1     156.564 128.959  57.126  1.00  0.00     0.120 HD
ENDBRANCH  20  27
ENDBRANCH   5  13
TORSDOF 6
