ATOM      1  C   UNL     1     156.012 134.198  61.573  1.00  0.00     0.178 C 
ATOM      2  O   UNL     1     155.148 133.800  60.487  1.00  0.00    -0.347 OA
ATOM      3  C   UNL     1     156.215 132.880  62.366  1.00  0.00     0.179 C 
ATOM      4  C   UNL     1     154.743 132.369  62.390  1.00  0.00     0.195 C 
ATOM      5  C   UNL     1     154.266 132.747  60.951  1.00  0.00     0.253 C 
ATOM      6  C   UNL     1     157.289 134.863  61.013  1.00  0.00     0.191 C 
ATOM      7  O   UNL     1     156.924 136.023  60.255  1.00  0.00    -0.394 OA
ATOM      8  H   UNL     1     156.351 135.764  59.529  1.00  0.00     0.210 HD
ATOM      9  O   UNL     1     156.755 133.075  63.680  1.00  0.00    -0.387 OA
ATOM     10  H   UNL     1     156.563 132.307  64.223  1.00  0.00     0.211 HD
ATOM     11  O   UNL     1     153.963 133.027  63.401  1.00  0.00    -0.386 OA
ATOM     12  H   UNL     1     153.869 132.448  64.161  1.00  0.00     0.211 HD
ATOM     13  N   UNL     1     154.244 131.672  59.965  1.00  0.00    -0.287 N 
ATOM     14  C   UNL     1     153.206 130.828  59.692  1.00  0.00     0.140 A 
ATOM     15  C   UNL     1     155.105 131.510  58.864  1.00  0.00     0.203 A 
ATOM     16  N   UNL     1     152.118 130.550  60.416  1.00  0.00    -0.331 N 
ATOM     17  C   UNL     1     153.406 130.323  58.451  1.00  0.00     0.122 A 
ATOM     18  N   UNL     1     154.620 130.716  57.897  1.00  0.00    -0.236 NA
ATOM     19  C   UNL     1     151.218 129.735  59.832  1.00  0.00     0.194 C 
ATOM     20  C   UNL     1     152.384 129.538  57.929  1.00  0.00     0.224 C 
ATOM     21  N   UNL     1     151.287 129.237  58.591  1.00  0.00    -0.250 NA
ATOM     22  H   UNL     1     151.982 130.917  61.319  1.00  0.00     0.169 HD
ATOM     23  N   UNL     1     152.357 129.093  56.678  1.00  0.00    -0.304 NA
ATOM     24  H   UNL     1     153.142 129.261  56.065  1.00  0.00     0.121 HD
ATOM     25  H   UNL     1     151.551 128.587  56.339  1.00  0.00     0.121 HD
