ATOM      1  C   UNL     2     101.637 120.821  63.432  1.00  0.00     0.178 C 
ATOM      2  O   UNL     2     102.719 121.089  62.515  1.00  0.00    -0.347 OA
ATOM      3  C   UNL     2     101.376 122.189  64.118  1.00  0.00     0.179 C 
ATOM      4  C   UNL     2     102.845 122.623  64.371  1.00  0.00     0.195 C 
ATOM      5  C   UNL     2     103.490 122.221  62.995  1.00  0.00     0.253 C 
ATOM      6  C   UNL     2     100.441 120.249  62.647  1.00  0.00     0.191 C 
ATOM      7  O   UNL     2     100.868 119.116  61.881  1.00  0.00    -0.394 OA
ATOM      8  H   UNL     2     101.554 119.385  61.266  1.00  0.00     0.210 HD
ATOM      9  O   UNL     2     100.587 122.074  65.312  1.00  0.00    -0.387 OA
ATOM     10  H   UNL     2     100.688 122.869  65.841  1.00  0.00     0.211 HD
ATOM     11  O   UNL     2     103.412 121.906  65.477  1.00  0.00    -0.386 OA
ATOM     12  H   UNL     2     103.189 122.353  66.297  1.00  0.00     0.211 HD
ATOM     13  N   UNL     2     103.477 123.241  61.943  1.00  0.00    -0.287 N 
ATOM     14  C   UNL     2     104.511 124.012  61.479  1.00  0.00     0.140 A 
ATOM     15  C   UNL     2     102.462 123.444  60.994  1.00  0.00     0.203 A 
ATOM     16  N   UNL     2     105.737 124.198  61.980  1.00  0.00    -0.331 N 
ATOM     17  C   UNL     2     104.101 124.595  60.322  1.00  0.00     0.122 A 
ATOM     18  N   UNL     2     102.791 124.270  59.991  1.00  0.00    -0.236 NA
ATOM     19  C   UNL     2     106.560 124.975  61.240  1.00  0.00     0.194 C 
ATOM     20  C   UNL     2     105.031 125.389  59.652  1.00  0.00     0.224 C 
ATOM     21  N   UNL     2     106.253 125.589  60.091  1.00  0.00    -0.250 NA
ATOM     22  H   UNL     2     106.022 123.795  62.832  1.00  0.00     0.169 HD
ATOM     23  N   UNL     2     104.822 125.979  58.476  1.00  0.00    -0.304 NA
ATOM     24  H   UNL     2     103.921 125.903  58.026  1.00  0.00     0.121 HD
ATOM     25  H   UNL     2     105.565 126.502  58.034  1.00  0.00     0.121 HD
