REMARK SMILES [NH3+][C@@H]1NCN[C@H]2[C@@H]1[NH2+]CN2[C@@H]1O[C@H](CO)[C@@H](O)[C@H]1O
REMARK SMILES IDX 13 1 12 2 16 3 18 4 11 5 14 6 15 7 17 9 19 11 10 13 6 14
REMARK SMILES IDX 9 15 7 16 5 17 8 18 2 19 4 20 3 21 1 26
REMARK H PARENT 15 8 17 10 19 12 5 22 8 23 8 24 3 25 1 27 1 28 1 29
ROOT
ATOM      1  C   UNL     1     155.512 134.199  60.926  1.00  0.00     0.177 C 
ATOM      2  O   UNL     1     154.474 133.776  60.031  1.00  0.00    -0.352 OA
ATOM      3  C   UNL     1     156.034 132.874  61.531  1.00  0.00     0.178 C 
ATOM      4  C   UNL     1     154.669 132.202  61.848  1.00  0.00     0.190 C 
ATOM      5  C   UNL     1     153.874 132.566  60.556  1.00  0.00     0.226 C 
ENDROOT
BRANCH   1   6
ATOM      6  C   UNL     1     156.563 135.039  60.176  1.00  0.00     0.191 C 
BRANCH   6   7
ATOM      7  O   UNL     1     157.566 135.463  61.107  1.00  0.00    -0.394 OA
ATOM      8  H   UNL     1     157.985 134.693  61.499  1.00  0.00     0.210 HD
ENDBRANCH   6   7
ENDBRANCH   1   6
BRANCH   3   9
ATOM      9  O   UNL     1     156.858 133.096  62.679  1.00  0.00    -0.387 OA
ATOM     10  H   UNL     1     156.921 132.286  63.190  1.00  0.00     0.211 HD
ENDBRANCH   3   9
BRANCH   4  11
ATOM     11  O   UNL     1     154.072 132.750  63.030  1.00  0.00    -0.386 OA
ATOM     12  H   UNL     1     154.658 132.613  63.778  1.00  0.00     0.211 HD
ENDBRANCH   4  11
BRANCH   5  13
ATOM     13  N   UNL     1     153.863 131.561  59.501  1.00  0.00    -0.206 NA
ATOM     14  C   UNL     1     152.832 130.741  59.152  1.00  0.00     0.199 C 
ATOM     15  C   UNL     1     154.757 131.452  58.425  1.00  0.00     0.359 C 
ATOM     16  C   UNL     1     153.078 130.267  57.908  1.00  0.00     0.291 C 
ATOM     17  N   UNL     1     151.722 130.447  59.829  1.00  0.00    -0.283 NA
ATOM     18  N   UNL     1     154.313 130.685  57.420  1.00  0.00    -0.323 N 
ATOM     19  C   UNL     1     152.070 129.500  57.321  1.00  0.00     0.317 C 
ATOM     20  C   UNL     1     150.835 129.666  59.191  1.00  0.00     0.172 C 
ATOM     21  N   UNL     1     150.943 129.197  57.939  1.00  0.00    -0.250 NA
ATOM     22  H   UNL     1     151.290 131.331  60.057  1.00  0.00     0.125 HD
ATOM     23  H   UNL     1     154.169 131.260  56.602  1.00  0.00     0.348 HD
ATOM     24  H   UNL     1     154.919 129.883  57.322  1.00  0.00     0.348 HD
ATOM     25  H   UNL     1     150.883 128.189  57.950  1.00  0.00     0.130 HD
BRANCH  19  26
ATOM     26  N   UNL     1     152.083 129.078  56.058  1.00  0.00    -0.338 N 
ATOM     27  H   UNL     1     152.961 129.331  55.627  1.00  0.00     0.346 HD
ATOM     28  H   UNL     1     151.975 128.074  56.037  1.00  0.00     0.346 HD
ATOM     29  H   UNL     1     151.323 129.508  55.551  1.00  0.00     0.346 HD
ENDBRANCH  19  26
ENDBRANCH   5  13
TORSDOF 6
