ATOM      1  C   UNL     2     100.691 120.538  63.789  1.00  0.00     0.177 C 
ATOM      2  O   UNL     2     101.798 120.429  62.859  1.00  0.00    -0.352 OA
ATOM      3  C   UNL     2     100.661 122.041  64.184  1.00  0.00     0.178 C 
ATOM      4  C   UNL     2     102.188 122.343  64.247  1.00  0.00     0.189 C 
ATOM      5  C   UNL     2     102.594 121.644  62.915  1.00  0.00     0.223 C 
ATOM      6  C   UNL     2      99.380 120.058  63.127  1.00  0.00     0.191 C 
ATOM      7  O   UNL     2      99.504 118.736  62.592  1.00  0.00    -0.394 OA
ATOM      8  H   UNL     2     100.198 118.723  61.928  1.00  0.00     0.210 HD
ATOM      9  O   UNL     2      99.940 122.294  65.389  1.00  0.00    -0.387 OA
ATOM     10  H   UNL     2     100.347 121.813  66.113  1.00  0.00     0.211 HD
ATOM     11  O   UNL     2     102.851 121.774  65.388  1.00  0.00    -0.386 OA
ATOM     12  H   UNL     2     103.106 122.475  65.993  1.00  0.00     0.211 HD
ATOM     13  N   UNL     2     102.336 122.430  61.711  1.00  0.00    -0.246 NA
ATOM     14  C   UNL     2     103.040 123.496  61.229  1.00  0.00     0.148 C 
ATOM     15  C   UNL     2     101.322 122.229  60.758  1.00  0.00     0.173 C 
ATOM     16  C   UNL     2     102.471 123.845  60.049  1.00  0.00     0.118 C 
ATOM     17  N   UNL     2     104.111 124.121  61.728  1.00  0.00    -0.288 NA
ATOM     18  N   UNL     2     101.370 123.064  59.715  1.00  0.00    -0.296 NA
ATOM     19  C   UNL     2     103.057 124.889  59.354  1.00  0.00     0.139 C 
ATOM     20  C   UNL     2     104.603 125.117  60.965  1.00  0.00     0.168 C 
ATOM     21  N   UNL     2     104.138 125.520  59.767  1.00  0.00    -0.288 NA
ATOM     22  H   UNL     2     104.821 123.414  61.858  1.00  0.00     0.125 HD
ATOM     23  H   UNL     2     100.553 123.652  59.632  1.00  0.00     0.124 HD
ATOM     24  H   UNL     2     103.904 126.502  59.809  1.00  0.00     0.125 HD
ATOM     25  N   UNL     2     102.581 125.284  58.173  1.00  0.00    -0.314 NA
ATOM     26  H   UNL     2     102.340 126.264  58.217  1.00  0.00     0.120 HD
ATOM     27  H   UNL     2     101.758 124.746  57.944  1.00  0.00     0.120 HD
